integrator              = steep
nsteps                  = 2000
emtol                   = 10.0
emstep                  = 0.01

cutoff-scheme           = Verlet
ns_type                 = grid
nstlist                 = 20
rlist                   = 1.0
rcoulomb                = 1.0
rvdw                    = 1.0
coulombtype             = PME
pbc                     = xyz

nstenergy               = 100
nstlog                  = 100
